<?xml version="1.0" encoding="UTF-8"?>

<!-- generated on Mon Mar 22 13:06:23 2021 by Eclipse SUMO sumo Version 1.8.0
<configuration xmlns:xsi="http://www.w3.org/2001/XMLSchema-instance" xsi:noNamespaceSchemaLocation="http://sumo.dlr.de/xsd/sumoConfiguration.xsd">

    <input>
        <net-file value="/home/cauchepin/DRLC/LuSTScenario-master/scenario/2021-03-22-13-06-13/osm.net.xml"/>
        <route-files value="/home/cauchepin/DRLC/LuSTScenario-master/scenario/2021-03-22-13-06-13/trips.trips.xml"/>
        <additional-files value="/home/cauchepin/DRLC/LuSTScenario-master/scenario/2021-03-22-13-06-13/osm_stops.add.xml"/>
    </input>

    <output>
        <vehroute-output value="/home/cauchepin/DRLC/LuSTScenario-master/scenario/2021-03-22-13-06-13/vehroutes.xml"/>
        <stop-output value="/home/cauchepin/DRLC/LuSTScenario-master/scenario/2021-03-22-13-06-13/stopinfos.xml"/>
    </output>

    <time>
        <begin value="0"/>
    </time>

    <processing>
        <ignore-route-errors value="true"/>
    </processing>

    <routing>
        <device.rerouting.adaptation-interval value="0"/>
    </routing>

    <report>
        <error-log value="/home/cauchepin/DRLC/LuSTScenario-master/scenario/2021-03-22-13-06-13/trips.trips.xml.errorlog"/>
        <no-step-log value="true"/>
    </report>

</configuration>
-->

<routes xmlns:xsi="http://www.w3.org/2001/XMLSchema-instance" xsi:noNamespaceSchemaLocation="http://sumo.dlr.de/xsd/routes_file.xsd">
    <vehicle id="5_bus_1:0" type="pt_bus" depart="55.00" departLane="1" arrival="199.00">
        <route edges="393878678 96202384 388006867#1 388006867#3 388211543 73204671#0 73204671#1 393248455 385079851 388040068 594713490 443202032 377213301#0 377213301#1 377213301#2 23019717"/>
        <stop busStop="4464473490" duration="30.00"/>
    </vehicle>

    <vehicle id="6_bus_2:0" type="pt_bus" depart="58.00" departLane="1" arrival="234.00">
        <route edges="-150258989#6 -150258989#5 -150258989#4 -150258989#3 -150258989#2 -150258989#0 96202384 388006867#1 388006867#3 388211543 73204671#0 73204671#1 393248455 385079851 388040068 594713490 443202032 377213301#0 377213301#1 377213301#2 23019717"/>
        <stop busStop="4464473490" duration="30.00"/>
    </vehicle>

    <vehicle id="13_bus_202:1" type="pt_bus" depart="201.00" departLane="0" arrival="242.00">
        <route edges="154986375 377213301#0 377213301#1 377213301#2 23019717"/>
    </vehicle>

    <vehicle id="3_bus_204:2" type="pt_bus" depart="17.00" departLane="0" arrival="246.00">
        <route edges="154986375 377213301#0 377213301#1 377213301#2 23019717 393248497#0 170012501#0 170012501#1 26149300#1 26149299 377213301#2 23019717 393248497#0 393248497#1 393248497#2 251421193#0 393878673#0 393878673#1 440710544 84526771#0 84526771#1 96202364#0 96202364#1 -223581247#8 -223581247#7 -223581247#6 -223581247#5"/>
        <stop busStop="8528731981" duration="30.00"/>
        <stop busStop="1115018437" duration="30.00"/>
    </vehicle>

    <vehicle id="1_bus_204:0" type="pt_bus" depart="15.00" departLane="1" arrival="263.00">
        <route edges="223581247#6 223581247#7 223581247#8 23019752#0 387488096#0 387488096#1 520948066 393248508 393248511#0 393248511#1 375371401 313843749#1 313843749#2 313843749#3 366838964 388280785 377213302 23888931 388280781 385079851 388040068 594713490 9232836#0"/>
        <stop busStop="1115018462" duration="30.00"/>
        <stop busStop="8528731984" duration="30.00"/>
        <stop busStop="1115018384" duration="30.00"/>
        <stop busStop="8528731982" duration="30.00"/>
    </vehicle>

    <vehicle id="4_bus_204:3" type="pt_bus" depart="81.00" departLane="1" arrival="298.00">
        <route edges="223581247#6 223581247#7 223581247#8 23019752#0 387488096#0 387488096#1 520948066 393248508 393248511#0 393248511#1 375371401 313843749#1 313843749#2 313843749#3 366838964 388280785 377213302 23888931 388280781 385079851 388040068 594713490 9232836#0"/>
        <stop busStop="1115018462" duration="30.00"/>
        <stop busStop="8528731984" duration="30.00"/>
        <stop busStop="1115018384" duration="30.00"/>
    </vehicle>

    <vehicle id="7_bus_3:0" type="pt_bus" depart="93.00" departLane="1" arrival="333.00">
        <route edges="780648219 155293889#1 155293889#2 155293889#3 710630160#0 710630160#1 96260468#0 96260468#1 642213925#1 672774776#0 672774776#1 672774776#2 174128071#0 174128071#1 174128071#2 383805343 155297783 142890932 383805348 259204343 377211608 385104372#1 376948774 376948767 141242409"/>
        <stop busStop="1631774736" duration="30.00"/>
        <stop busStop="1676916972" duration="30.00"/>
        <stop busStop="1676893045" duration="30.00"/>
    </vehicle>

    <vehicle id="21_bus_325:1" type="pt_bus" depart="353.00" departLane="0" arrival="395.00">
        <route edges="154986375 377213301#0 377213301#1 377213301#2 23019717"/>
    </vehicle>

    <vehicle id="2_bus_204:1" type="pt_bus" depart="15.00" departLane="1" arrival="398.00">
        <route edges="223581247#0 223581247#1 223581247#2 223581247#4 223581247#5 223581247#6 223581247#7 223581247#8 23019752#0 387488096#0 387488096#1 520948066 393248508 393248511#0 393248511#1 375371401 313843749#1 313843749#2 313843749#3 366838964 388280785 377213302 23888931 388280781 385079851 388040068 594713490 9232836#0"/>
        <stop busStop="1115018462" duration="30.00"/>
        <stop busStop="8528731984" duration="30.00"/>
        <stop busStop="1115018384" duration="30.00"/>
        <stop busStop="8528731982" duration="30.00"/>
    </vehicle>

    <vehicle id="16_bus_321:0" type="pt_bus" depart="253.00" departLane="1" arrival="403.00">
        <route edges="393878678 96202384 388006867#1 388006867#3 388211543 73204671#0 73204671#1 393248455 385079851 388040068 594713490 9232836#0"/>
        <stop busStop="4464473490" duration="30.00"/>
    </vehicle>

    <vehicle id="9_train_TER_31:0" type="pt_train" depart="131.00" departLane="0" arrival="439.00">
        <route edges="150252469 336961970 336961969 24978795 24978806"/>
        <stop busStop="3733227187" duration="30.00"/>
    </vehicle>

    <vehicle id="17_bus_321:1" type="pt_bus" depart="303.00" departLane="0" arrival="453.00">
        <route edges="154986375 377213301#0 377213301#1 377213301#2 393878675 388280785 377213302 23888931 23019727#0 23019727#1 23019727#2 -388211543 -388006867#3 -388006867#1 -388006867#0 -393878678"/>
        <stop busStop="5146079337" duration="30.00"/>
    </vehicle>

    <vehicle id="12_bus_202:0" type="pt_bus" depart="165.00" departLane="1" arrival="472.00">
        <route edges="223581247#0 223581247#1 223581247#2 223581247#4 223581247#5 223581247#6 223581247#7 223581247#8 23019752#0 387488096#0 387488096#1 520948066 393248508 393248511#0 393248511#1 375371401 313843749#1 313843749#2 313843749#3 366838964 388280785 377213302 23888931 388280781 385079851 388040068 594713490 9232836#0"/>
        <stop busStop="1115018462" duration="30.00"/>
        <stop busStop="1115018384" duration="30.00"/>
    </vehicle>

    <vehicle id="15_bus_203:1" type="pt_bus" depart="227.00" departLane="1" arrival="480.00">
        <route edges="25210189#0 25210189#1 25210189#2 25210189#3 152100999 393248463 594713490 443202032 377213301#0 377213301#1 377213301#2 23019717 393248497#0 393248497#1 393248497#2 251421193#0 393878673#0 393878673#1 440710544 84526823#0 84526823#1 84526823#2 387830973"/>
        <stop busStop="5670312476" duration="30.00"/>
        <stop busStop="1115018437" duration="30.00"/>
    </vehicle>

    <vehicle id="14_bus_203:0" type="pt_bus" depart="204.00" departLane="1" arrival="544.00">
        <route edges="-387830973 84526820#0 84526820#1 476707103#0 476707103#1 520948066 393248508 393248511#0 393248511#1 375371401 313843749#1 313843749#2 313843749#3 366838964 388280785 377213302 23888931 388280781 385079851 152101003 594713491 -25210189#3 -25210189#2 -25210189#1 -25210189#0"/>
        <stop busStop="1115018384" duration="30.00"/>
        <stop busStop="-1649300091" duration="30.00"/>
    </vehicle>

    <vehicle id="0_bus_308:0" type="pt_bus" depart="3.00" departLane="1" arrival="556.00">
        <route edges="25210189#0 25210189#1 25210189#2 25210189#3 152100999 393248463 594713490 443202032 377213301#0 377213301#1 377213301#2 23019717 393248497#0 393248497#1 393248497#2 251421193#0 393248506#0 393248506#1 393248506#2 393248506#3 393248506#4 194714712 809062693 809062692 393878671#0 393878671#1 467392235#1 425555627#0 425555627#1 69353459#0 69353439#1 69353439#6 69353439#7 663774150#0 663774150#1 663774150#2 338332423#0 360827911#1 360827911#2 360827911#3 408845038#0 408845038#1 408845038#2 155295647#0 155295647#1 393764274#1 370817780 378064622#1 360815375#1 360815375#2 360815375#3 360815375#4 360815375#5 360815375#6 360815375#7 360815375#8 360815375#9 360815375#10 516873295#0"/>
        <stop busStop="8528041099" duration="30.00"/>
        <stop busStop="8528041097" duration="30.00"/>
        <stop busStop="4721178055" duration="30.00"/>
        <stop busStop="5045105611" duration="30.00"/>
    </vehicle>

    <vehicle id="20_bus_325:0" type="pt_bus" depart="331.00" departLane="1" arrival="558.00">
        <route edges="223581247#0 223581247#1 223581247#2 223581247#4 223581247#5 223581247#6 223581247#7 223581247#8 23019752#0 387488096#0 387488096#1 520948066 393248508 393248511#0 393248511#1 375371401 313843749#1 313843749#2 313843749#3 366838964 388280785 377213302 23888931 388280781 385079851 388040068 594713490 9232836#0"/>
        <stop busStop="1115018462" duration="30.00"/>
        <stop busStop="1115018384" duration="30.00"/>
    </vehicle>

    <vehicle id="19_bus_322:1" type="pt_bus" depart="326.00" departLane="1" arrival="567.00">
        <route edges="780648219 155293889#1 155293889#2 155293889#3 710630160#0 710630160#1 96260468#0 96260468#1 642213925#1 672774776#0 672774776#1 672774776#2 174128071#0 174128071#1 174128071#2 383805343 155297783 142890932 383805348 259204343 377211608 385104372#1 376948774 376948767 141242409"/>
        <stop busStop="1631774736" duration="30.00"/>
        <stop busStop="1676916972" duration="30.00"/>
        <stop busStop="1676893045" duration="30.00"/>
    </vehicle>

    <vehicle id="18_bus_322:0" type="pt_bus" depart="321.00" departLane="1" arrival="602.00">
        <route edges="-141242409 -376948767 -376948774 -383805357 -385104372#0 142890930 142890934 377211609 383805340 259204346 -155297783 -383805343 -174128071#2 -174128071#1 -174128071#0 -672774776#2 -672774776#1 -672774776#0 -642213925#1 -642213925#0 -96260468#0 -96260467 155293889#1 155293889#2 155293889#3 710630160#0 710630160#1 -96260467 -780648219"/>
        <stop busStop="-1677092127" duration="30.00"/>
        <stop busStop="-1677096003" duration="30.00"/>
        <stop busStop="1631774736" duration="30.00"/>
    </vehicle>

    <vehicle id="24_train_CFL-60:0" type="pt_train" depart="383.00" departLane="0" arrival="730.00">
        <route edges="-43153659 -43153658 -336961968 -336961967"/>
        <stop busStop="-540592185" duration="30.00"/>
        <stop busStop="-540592226" duration="30.00"/>
        <stop busStop="-2126814069" duration="30.00"/>
    </vehicle>

    <vehicle id="32_bus_1:1" type="pt_bus" depart="485.00" departLane="1" arrival="793.00">
        <route edges="223581247#0 223581247#1 223581247#2 223581247#4 223581247#5 223581247#6 223581247#7 223581247#8 23019752#0 387488096#0 387488096#1 520948066 393248508 393248511#0 393248511#1 375371401 313843749#1 313843749#2 313843749#3 366838964 388280785 377213302 23888931 23019727#0 23019727#1 23019727#2 -388211543 -388006867#3 -388006867#1 -388006867#0 -393878678"/>
        <stop busStop="1115018462" duration="30.00"/>
        <stop busStop="1115018384" duration="30.00"/>
        <stop busStop="5146079337" duration="30.00"/>
    </vehicle>

    <vehicle id="34_bus_3:1" type="pt_bus" depart="508.00" departLane="1" arrival="829.00">
        <route edges="-141242409 -376948767 -376948774 -383805357 -385104372#0 142890930 142890934 377211609 383805340 259204346 -155297783 -383805343 -174128071#2 -174128071#1 -174128071#0 -672774776#2 -672774776#1 -672774776#0 -642213925#1 -642213925#0 -96260468#0 -96260467 155293889#1 155293889#2 155293889#3 710630160#0 710630160#1 -96260467 155293889#1 155293889#2 155293889#3 710630160#0 710630160#1 -96260467 -780648219"/>
        <stop busStop="-1677092127" duration="30.00"/>
        <stop busStop="-1677096003" duration="30.00"/>
        <stop busStop="6681188068" duration="30.00"/>
        <stop busStop="1631774736" duration="30.00"/>
    </vehicle>

    <vehicle id="8_bus_4:0" type="pt_bus" depart="119.00" departLane="1" arrival="882.00">
        <route edges="-393764279#1 -393764279#0 -393764283#1 -393764283#0 -43662057#1 -43662057#0 69353461#1 393764297#1 393764297#2 393764297#3 663774150#0 663774150#1 663774150#2 338332423#0 393764297#1 393764297#2 393764297#3 393596509 393596508#0 393596508#1 393596508#2 425555630#2 227337561 426538581#0 426538581#1 426538581#2 423133516 423133512 28246185 194714719 440710412#0 440710412#1 375371401 313843749#1 313843749#2 313843749#3 366838964 388280785 377213302 23888931 23019727#0 23019727#1 23019727#2 -388211543 -388006867#3 -388006867#1 -388006867#0 150258989#0 150258989#2 150258989#3 150258989#4 150258989#5 150258989#6"/>
        <stop busStop="-3588272882" duration="30.00"/>
        <stop busStop="-4097218576" duration="30.00"/>
        <stop busStop="4408239878" duration="30.00"/>
        <stop busStop="1625279566" duration="30.00"/>
        <stop busStop="6212933652" duration="30.00"/>
        <stop busStop="6212933653" duration="30.00"/>
        <stop busStop="1115018384" duration="30.00"/>
        <stop busStop="5146079337" duration="30.00"/>
        <stop busStop="1631828668" duration="30.00"/>
    </vehicle>

    <vehicle id="29_train_CFL-60:1" type="pt_train" depart="441.00" departLane="0" arrival="916.00">
        <route edges="150252469 336961970 336961969 24978795 24978806"/>
        <stop busStop="2125968286" duration="30.00"/>
        <stop busStop="271417454" duration="30.00"/>
        <stop busStop="271417570" duration="30.00"/>
    </vehicle>

    <vehicle id="10_bus_306:0" type="pt_bus" depart="132.00" departLane="0" arrival="918.00">
        <route edges="516873295#0 516873295#1 516873295#2 516873295#3 516873295#4 363299635#0 -378064619#2 -378064622#1 -378064622#0 -393764274#1 -393764274#0 -155295647#0 -408845038#2 -408845038#1 -408845038#0 -360827911#3 -360827911#2 360827911#2 360827911#3 408845038#0 -408845038#0 -360827911#3 -360827911#2 -360827911#1 393764297#1 393764297#2 393764297#3 663774150#0 663774150#1 663774150#2 338332423#0 393764297#1 393764297#2 393764297#3 393596509 393596508#0 393596508#1 393596508#2 425555630#2 227337561 426538581#0 426538581#1 426538581#2 366838967 364154088#0 364154088#1 364154088#2 188215405 385080086#0 377213300 393248447 23888931 388280781 385079851 388040068 594713490 9232836#0"/>
        <stop busStop="5045105611" duration="30.00"/>
        <stop busStop="4721178055@6112896" duration="30.00"/>
        <stop busStop="4408239875" duration="30.00"/>
        <stop busStop="-2360364949" duration="30.00"/>
        <stop busStop="4408239878" duration="30.00"/>
        <stop busStop="1625279566" duration="30.00"/>
        <stop busStop="6212933652" duration="30.00"/>
        <stop busStop="6212933653" duration="30.00"/>
    </vehicle>

    <vehicle id="33_bus_2:1" type="pt_bus" depart="497.00" departLane="1" arrival="921.00">
        <route edges="223581247#0 223581247#1 223581247#2 223581247#4 223581247#5 223581247#6 223581247#7 223581247#8 23019752#0 387488096#0 387488096#1 520948066 393248508 393248511#0 393248511#1 375371401 313843749#1 313843749#2 313843749#3 366838964 388280785 377213302 23888931 23019727#0 23019727#1 23019727#2 -388211543 -388006867#3 -388006867#1 -388006867#0 150258989#0 150258989#2 150258989#3 150258989#4 150258989#5 150258989#6"/>
        <stop busStop="1115018462" duration="30.00"/>
        <stop busStop="1115018384" duration="30.00"/>
        <stop busStop="5146079337" duration="30.00"/>
        <stop busStop="1631828668" duration="30.00"/>
    </vehicle>

    <vehicle id="11_bus_306:1" type="pt_bus" depart="133.00" departLane="0" arrival="992.00">
        <route edges="154986375 377213301#0 377213301#1 377213301#2 23019717 393248497#0 393248497#1 393248497#2 251421193#0 393248506#0 393248506#1 393248506#2 393248506#3 393248506#4 194714712 809062693 809062692 393878671#0 393878671#1 467392235#1 425555627#0 425555627#1 69353459#0 -227338318#2 -227338318#1 -227338318#0 713057043 393596508#0 393596508#1 393596508#2 -227338318#2 -227338318#1 -227338318#0 393835185 663774150#0 663774150#1 663774150#2 338332423#0 393764297#1 393764297#2 393764297#3 663774150#0 663774150#1 663774150#2 338332423#0 360827911#1 360827911#2 360827911#3 408845038#0 408845038#1 408845038#2 155295647#0 155295647#1 393764274#1 370817780 378064622#1 360815375#1 360815375#2 360815375#3 360815375#4 360815375#5 360815375#6 360815375#7 360815375#8 360815375#9 360815375#10 516873295#0 516873295#1 516873295#2 516873295#3 516873295#4 363299635#0 -378064619#2 360815375#1 360815375#2 360815375#3 360815375#4 360815375#5 360815375#6 360815375#7 360815375#8 360815375#9 360815375#10"/>
        <stop busStop="-6212933651" duration="30.00"/>
        <stop busStop="-6212933654" duration="30.00"/>
        <stop busStop="4408239877" duration="30.00"/>
        <stop busStop="4107535818" duration="30.00"/>
        <stop busStop="4408239875" duration="30.00"/>
        <stop busStop="4107543803" duration="30.00"/>
        <stop busStop="5045105611" duration="30.00"/>
        <stop busStop="4721178055" duration="30.00"/>
    </vehicle>

    <vehicle id="22_bus_332:0" type="pt_bus" depart="362.00" departLane="1" arrival="1019.00">
        <route edges="360827911#3 408845038#0 -408845038#0 -360827911#3 -360827911#2 -360827911#1 393764297#1 393764297#2 393764297#3 663774150#0 663774150#1 663774150#2 338332423#0 393764297#1 393764297#2 393764297#3 393764300#0 393764300#1 393764300#2 393764300#3 425555630#2 227337561 426538581#0 426538581#1 426538581#2 366838967 364154088#0 364154088#1 364154088#2 188215405 385080086#0 377213300 393248447 23888931 388280781 385079851 152101003 594713491 -25210189#3 -25210189#2 -25210189#1 -25210189#0"/>
        <stop busStop="4408239875" duration="30.00"/>
        <stop busStop="-2360364949@8360118" duration="30.00"/>
        <stop busStop="4408239878" duration="30.00"/>
        <stop busStop="1625279566" duration="30.00"/>
        <stop busStop="4248491039" duration="30.00"/>
        <stop busStop="3968040959" duration="30.00"/>
        <stop busStop="-1649300091" duration="30.00"/>
    </vehicle>

    <vehicle id="23_bus_332:1" type="pt_bus" depart="371.00" departLane="1" arrival="1081.00">
        <route edges="25210189#0 25210189#1 25210189#2 25210189#3 152100999 393248463 594713490 443202032 377213301#0 377213301#1 377213301#2 23019717 393248497#0 393248497#1 393248497#2 251421193#0 393248506#0 393248506#1 393248506#2 393248506#3 393248506#4 194714712 809062693 809062692 393878671#0 393878671#1 467392235#1 425555627#0 425555627#1 69353459#0 69353439#1 69353439#6 69353439#7 663774150#0 663774150#1 663774150#2 338332423#0 393764297#1 393764297#2 393764297#3 663774150#0 663774150#1 663774150#2 338332423#0 360827911#1 360827911#2 360827911#3"/>
        <stop busStop="5670312476" duration="30.00"/>
        <stop busStop="4248491038" duration="30.00"/>
        <stop busStop="3968109962" duration="30.00"/>
        <stop busStop="4408239877" duration="30.00"/>
        <stop busStop="4107535818" duration="30.00"/>
        <stop busStop="4408239875" duration="30.00"/>
        <stop busStop="4107543803" duration="30.00"/>
    </vehicle>

    <vehicle id="26_bus_7:1" type="pt_bus" depart="406.00" departLane="1" arrival="1136.00">
        <route edges="-393764279#1 -393764279#0 -393764283#1 -393764283#0 -43662057#1 -43662057#0 69353461#1 393764297#1 393764297#2 393764297#3 663774150#0 663774150#1 663774150#2 338332423#0 393764297#1 393764297#2 393764297#3 393596509 393596508#0 393596508#1 393596508#2 425555630#2 227337561 426538581#0 426538581#1 426538581#2 423133516 423133512 28246185 194714719 440710412#0 440710412#1 375371401 313843749#1 313843749#2 313843749#3 366838964 388280785 377213302 23888931 388280781 385079851 152101003 594713491 -25210189#3 -25210189#2 -25210189#1 -25210189#0"/>
        <stop busStop="-3588272882" duration="30.00"/>
        <stop busStop="-4097218576" duration="30.00"/>
        <stop busStop="4408239878" duration="30.00"/>
        <stop busStop="1625279566" duration="30.00"/>
        <stop busStop="6212933652" duration="30.00"/>
        <stop busStop="6212933653" duration="30.00"/>
        <stop busStop="1115018384" duration="30.00"/>
        <stop busStop="-1649300091" duration="30.00"/>
    </vehicle>

    <vehicle id="27_bus_309:0" type="pt_bus" depart="418.00" departLane="0" arrival="1137.00">
        <route edges="516873295#0 516873295#1 516873295#2 516873295#3 516873295#4 363299635#0 -378064619#2 -378064622#1 -378064622#0 -393764274#1 -393764274#0 -155295647#0 -408845038#2 -408845038#1 -408845038#0 -360827911#3 -360827911#2 360827911#2 360827911#3 408845038#0 -408845038#0 -360827911#3 -360827911#2 -360827911#1 393764297#1 393764297#2 393764297#3 663774150#0 663774150#1 663774150#2 338332423#0 393764297#1 393764297#2 393764297#3 393596509 393596508#0 393596508#1 393596508#2 425555630#2 227337561 426538581#0 426538581#1 426538581#2 366838967 364154088#0 364154088#1 364154088#2 188215405 385080086#0 377213300 393248447 23888931 388280781 385079851 388040068 594713490 9232836#0"/>
        <stop busStop="5045105611" duration="30.00"/>
        <stop busStop="4721178055@6112896" duration="30.00"/>
        <stop busStop="4408239875" duration="30.00"/>
        <stop busStop="-2360364949" duration="30.00"/>
        <stop busStop="4408239878" duration="30.00"/>
        <stop busStop="1625279566" duration="30.00"/>
        <stop busStop="6212933652" duration="30.00"/>
        <stop busStop="6212933653" duration="30.00"/>
    </vehicle>

    <vehicle id="25_bus_7:0" type="pt_bus" depart="389.00" departLane="1" arrival="1170.00">
        <route edges="25210189#0 25210189#1 25210189#2 25210189#3 152100999 393248463 594713490 443202032 377213301#0 377213301#1 377213301#2 23019717 393248497#0 393248497#1 393248497#2 251421193#0 393248506#0 393248506#1 393248506#2 393248506#3 393248506#4 194714712 809062693 809062692 393878671#0 393878671#1 467392235#1 425555627#0 425555627#1 69353459#0 -227338318#2 -227338318#1 -227338318#0 713057043 393596508#0 393596508#1 393596508#2 -227338318#2 -227338318#1 -227338318#0 393835185 663774150#0 663774150#1 663774150#2 338332423#0 393764293#1 43662057#0 43662057#1 393764283#0 393764283#1 393764283#2 393764279#1 711234499"/>
        <stop busStop="5670312476" duration="30.00"/>
        <stop busStop="1115018437" duration="30.00"/>
        <stop busStop="-6212933651" duration="30.00"/>
        <stop busStop="-6212933654" duration="30.00"/>
        <stop busStop="6687644239" duration="30.00"/>
        <stop busStop="527829779" duration="30.00"/>
    </vehicle>

    <vehicle id="35_bus_4:1" type="pt_bus" depart="535.00" departLane="1" arrival="1239.00">
        <route edges="-150258989#6 -150258989#5 -150258989#4 -150258989#3 -150258989#2 -150258989#0 96202384 388006867#1 388006867#3 388211543 73204671#0 73204671#1 393248455 385079851 388040068 594713490 443202032 377213301#0 377213301#1 377213301#2 23019717 393248497#0 393248497#1 393248497#2 251421193#0 393248506#0 393248506#1 393248506#2 393248506#3 393248506#4 194714712 809062693 809062692 393878671#0 393878671#1 467392235#1 425555627#0 425555627#1 69353459#0 -227338318#2 -227338318#1 -227338318#0 713057043 393596508#0 393596508#1 393596508#2 -227338318#2 -227338318#1 -227338318#0 393835185 663774150#0 663774150#1 663774150#2 338332423#0 393764293#1 43662057#0 43662057#1 393764283#0 393764283#1 393764283#2 393764279#1 711234499"/>
        <stop busStop="4464473490" duration="30.00"/>
        <stop busStop="1115018437" duration="30.00"/>
        <stop busStop="-6212933651" duration="30.00"/>
        <stop busStop="-6212933654" duration="30.00"/>
        <stop busStop="6687644239" duration="30.00"/>
        <stop busStop="527829779" duration="30.00"/>
    </vehicle>

    <vehicle id="31_bus_209:1" type="pt_bus" depart="484.00" departLane="0" arrival="1298.00">
        <route edges="710630160#0 710630160#1 96260468#0 96260468#1 642213925#1 672774776#0 672774776#1 672774776#2 174128071#0 174128071#1 174128071#2 383805343 155297783 142890932 383805348 383805349 142890934 194714706 194714726 479132315 142890725 -393764290#1 -408845038#2 -408845038#1 -408845038#0 -360827911#3 -360827911#2 360827911#2 360827911#3 408845038#0 -408845038#0 -360827911#3 -360827911#2 -360827911#1 393764297#1 393764297#2 393764297#3 663774150#0 663774150#1 663774150#2 338332423#0 393764297#1 393764297#2 393764297#3 393596509 393596508#0 393596508#1 393596508#2 425555630#2 227337561 426538581#0 426538581#1 426538581#2 366838967 364154088#0 364154088#1 364154088#2 188215405 385080086#0 377213300 393248447 23888931 388280781 385079851 388040068 594713490 9232836#0"/>
        <stop busStop="6681188068" duration="30.00"/>
        <stop busStop="1631774736@9882620" duration="30.00"/>
        <stop busStop="4408239875" duration="30.00"/>
        <stop busStop="-2360364949" duration="30.00"/>
        <stop busStop="4408239878" duration="30.00"/>
        <stop busStop="1625279566" duration="30.00"/>
        <stop busStop="6212933652" duration="30.00"/>
        <stop busStop="6212933653" duration="30.00"/>
    </vehicle>

    <vehicle id="28_bus_309:1" type="pt_bus" depart="437.00" departLane="0" arrival="1406.00">
        <route edges="154986375 377213301#0 377213301#1 377213301#2 23019717 393248497#0 393248497#1 393248497#2 251421193#0 393248506#0 393248506#1 393248506#2 393248506#3 393248506#4 194714712 809062693 809062692 393878671#0 393878671#1 467392235#1 425555627#0 425555627#1 69353459#0 -227338318#2 -227338318#1 -227338318#0 713057043 393596508#0 393596508#1 393596508#2 -227338318#2 -227338318#1 -227338318#0 393835185 663774150#0 663774150#1 663774150#2 338332423#0 393764297#1 393764297#2 393764297#3 663774150#0 663774150#1 663774150#2 338332423#0 360827911#1 360827911#2 360827911#3 408845038#0 408845038#1 408845038#2 155295647#0 155295647#1 393764274#1 370817780 378064622#1 360815375#1 360815375#2 360815375#3 360815375#4 360815375#5 360815375#6 360815375#7 360815375#8 360815375#9 360815375#10 516873295#0 516873295#1 516873295#2 516873295#3 516873295#4 363299635#0 -378064619#2 360815375#1 360815375#2 360815375#3 360815375#4 360815375#5 360815375#6 360815375#7 360815375#8 360815375#9 360815375#10"/>
        <stop busStop="-6212933651" duration="30.00"/>
        <stop busStop="-6212933654" duration="30.00"/>
        <stop busStop="4408239877" duration="30.00"/>
        <stop busStop="4107535818" duration="30.00"/>
        <stop busStop="4408239875" duration="30.00"/>
        <stop busStop="4107543803" duration="30.00"/>
        <stop busStop="5045105611" duration="30.00"/>
        <stop busStop="4721178055" duration="30.00"/>
    </vehicle>

    <vehicle id="30_bus_209:0" type="pt_bus" depart="483.00" departLane="0" arrival="1477.00">
        <route edges="154986375 377213301#0 377213301#1 377213301#2 23019717 393248497#0 393248497#1 393248497#2 251421193#0 393248506#0 393248506#1 393248506#2 393248506#3 393248506#4 194714712 809062693 809062692 393878671#0 393878671#1 467392235#1 425555627#0 425555627#1 69353459#0 -227338318#2 -227338318#1 -227338318#0 713057043 393596508#0 393596508#1 393596508#2 -227338318#2 -227338318#1 -227338318#0 393835185 663774150#0 663774150#1 663774150#2 338332423#0 393764297#1 393764297#2 393764297#3 663774150#0 663774150#1 663774150#2 338332423#0 360827911#1 360827911#2 360827911#3 408845038#0 408845038#1 408845038#2 393764290#1 -142890725 -479132315 -142890729 194714691 383805340 259204346 -155297783 -383805343 -174128071#2 -174128071#1 -174128071#0 -672774776#2 -672774776#1 -672774776#0 -642213925#1 -642213925#0 -96260468#0 -96260467 155293889#1 155293889#2 155293889#3 710630160#0 710630160#1 -96260467 155293889#1 155293889#2 155293889#3"/>
        <stop busStop="-6212933651" duration="30.00"/>
        <stop busStop="-6212933654" duration="30.00"/>
        <stop busStop="4408239877" duration="30.00"/>
        <stop busStop="4107535818" duration="30.00"/>
        <stop busStop="4408239875" duration="30.00"/>
        <stop busStop="4107543803" duration="30.00"/>
        <stop busStop="6681188068" duration="30.00"/>
        <stop busStop="1631774736" duration="30.00"/>
    </vehicle>

    <vehicle id="37_bus_15:1" type="pt_bus" depart="583.00" departLane="1" arrival="1608.00">
        <route edges="393878678 96202384 388006867#1 388006867#3 388211543 73204671#0 73204671#1 393248455 385079851 388040068 594713490 443202032 377213301#0 377213301#1 377213301#2 23019717 393248497#0 393248497#1 393248497#2 251421193#0 393248506#0 393248506#1 393248506#2 393248506#3 393248506#4 194714712 809062693 809062692 393878671#0 393878671#1 467392235#1 425555627#0 425555627#1 69353459#0 -227338318#2 -227338318#1 -227338318#0 713057043 393596508#0 393596508#1 393596508#2 -227338318#2 -227338318#1 -227338318#0 393835185 663774150#0 663774150#1 663774150#2 338332423#0 393764293#1 43662057#0 43662057#1 393764283#0 393764283#1 393764283#2 393764279#1 711234499 711292223 -711292223 -711234499 -393764279#1 -393764279#0 -393764283#1 -393764283#0 -43662057#1 -43662057#0 69353461#1 360827911#1 360827911#2 360827911#3 408845038#0 408845038#1 408845038#2 393764290#1 -142890725 -479132315 -142890729 194714691 383805340 383805350 383805348 259204343 377211608 385104372#1 376948774 376948767 141242409"/>
        <stop busStop="4464473490" duration="30.00"/>